------------------------------------------------------------
          Invoking FHI-aims ...

          When using FHI-aims, please cite the following reference:

            Volker Blum, Ralf Gehrke, Felix Hanke, Paula Havu,
            Ville Havu, Xinguo Ren, Karsten Reuter, and Matthias Scheffler,
            'Ab Initio Molecular Simulations with Numeric Atom-Centered Orbitals',
            Computer Physics Communications 180, 2175-2196 (2009)

          In addition, many other developments in FHI-aims are likely important for
          your particular application. A partial list of references is given at the end of
          this file. Thank you for giving credit to the authors of these developments.

          For any questions about FHI-aims, please visit our slack channel at

            https://fhi-aims.slack.com

          and our main development and support site at

            https://aims-git.rz-berlin.mpg.de .

          The latter site, in particular, has a wiki to collect information, as well
          as an issue tracker to log discussions, suggest improvements, and report issues
          or bugs. https://aims-git.rz-berlin.mpg.de is also the main development site
          of the project and all new and updated code versions can be obtained there.
          Please send an email to aims-coordinators@fhi-berlin.mpg.de and we will add
          you to these sites. They are for you and everyone is welcome there.

------------------------------------------------------------



  Date     :  20221025, Time     :  182037.693
  Time zero on CPU 1             :   0.812340000000000E-01  s.
  Internal wall clock time zero  :           435954037.693  s.

  FHI-aims created a unique identifier for this run for later identification
  aims_uuid : 66E89D5E-64A2-45D9-AA00-6C8A8A2D27AF

  Build configuration of the current instance of FHI-aims
  -------------------------------------------------------
  FHI-aims version      : 210618
  Commit number         : f9e1e7592
  CMake host system     : Linux-3.10.0-1127.13.1.el7.x86_64
  CMake version         : 3.17.3
  Fortran compiler      : /apps/compilers/intel/2018.2/compilers_and_libraries_2018/linux/mpi/intel64/bin/mpif90 (Intel) version 18.0.2.20180210
  Fortran compiler flags: -O3 -ip -fp-model precise
  C compiler            : /apps/compilers/intel/2018.2/compilers_and_libraries_2018/linux/bin/intel64/icc (Intel) version 18.0.2.20180210
  C compiler flags      : -O3 -ip -fp-model precise -std=gnu99
  ELPA2 kernel          : AVX2
  Using MPI
  Using ScaLAPACK
  Using LibXC
  Using i-PI
  Using RLSY
  Linking against: /apps/compilers/intel/2018.2/compilers_and_libraries_2018/linux/mkl/lib/intel64/libmkl_intel_lp64.so
                   /apps/compilers/intel/2018.2/compilers_and_libraries_2018/linux/mkl/lib/intel64/libmkl_intel_thread.so
                   /apps/compilers/intel/2018.2/compilers_and_libraries_2018/linux/mkl/lib/intel64/libmkl_core.so
                   /apps/compilers/intel/2018.2/compilers_and_libraries_2018/linux/mkl/lib/intel64/libmkl_blacs_intelmpi_lp64.so
                   /apps/compilers/intel/2018.2/compilers_and_libraries_2018/linux/mkl/lib/intel64/libmkl_scalapack_lp64.so
                   /usr/lib64/libpthread.so

  Using      120 parallel tasks.
  Task        0 on host ccs0026 reporting.
  Task        1 on host ccs0026 reporting.
  Task        2 on host ccs0026 reporting.
  Task        3 on host ccs0026 reporting.
  Task        4 on host ccs0026 reporting.
  Task        5 on host ccs0026 reporting.
  Task        6 on host ccs0026 reporting.
  Task        7 on host ccs0026 reporting.
  Task        8 on host ccs0026 reporting.
  Task        9 on host ccs0026 reporting.
  Task       10 on host ccs0026 reporting.
  Task       11 on host ccs0026 reporting.
  Task       12 on host ccs0026 reporting.
  Task       13 on host ccs0026 reporting.
  Task       14 on host ccs0026 reporting.
  Task       15 on host ccs0026 reporting.
  Task       16 on host ccs0026 reporting.
  Task       17 on host ccs0026 reporting.
  Task       18 on host ccs0026 reporting.
  Task       19 on host ccs0026 reporting.
  Task       20 on host ccs0026 reporting.
  Task       21 on host ccs0026 reporting.
  Task       22 on host ccs0026 reporting.
  Task       23 on host ccs0026 reporting.
  Task       24 on host ccs0026 reporting.
  Task       25 on host ccs0026 reporting.
  Task       26 on host ccs0026 reporting.
  Task       27 on host ccs0026 reporting.
  Task       28 on host ccs0026 reporting.
  Task       29 on host ccs0026 reporting.
  Task       30 on host ccs0026 reporting.
  Task       31 on host ccs0026 reporting.
  Task       32 on host ccs0026 reporting.
  Task       33 on host ccs0026 reporting.
  Task       34 on host ccs0026 reporting.
  Task       35 on host ccs0026 reporting.
  Task       36 on host ccs0026 reporting.
  Task       37 on host ccs0026 reporting.
  Task       38 on host ccs0026 reporting.
  Task       39 on host ccs0026 reporting.
  Task       40 on host ccs0029 reporting.
  Task       41 on host ccs0029 reporting.
  Task       42 on host ccs0029 reporting.
  Task       43 on host ccs0029 reporting.
  Task       44 on host ccs0029 reporting.
  Task       45 on host ccs0029 reporting.
  Task       46 on host ccs0029 reporting.
  Task       47 on host ccs0029 reporting.
  Task       48 on host ccs0029 reporting.
  Task       49 on host ccs0029 reporting.
  Task       50 on host ccs0029 reporting.
  Task       51 on host ccs0029 reporting.
  Task       52 on host ccs0029 reporting.
  Task       53 on host ccs0029 reporting.
  Task       54 on host ccs0029 reporting.
  Task       55 on host ccs0029 reporting.
  Task       56 on host ccs0029 reporting.
  Task       57 on host ccs0029 reporting.
  Task       58 on host ccs0029 reporting.
  Task       59 on host ccs0029 reporting.
  Task       60 on host ccs0029 reporting.
  Task       61 on host ccs0029 reporting.
  Task       62 on host ccs0029 reporting.
  Task       63 on host ccs0029 reporting.
  Task       64 on host ccs0029 reporting.
  Task       65 on host ccs0029 reporting.
  Task       66 on host ccs0029 reporting.
  Task       67 on host ccs0029 reporting.
  Task       68 on host ccs0029 reporting.
  Task       69 on host ccs0029 reporting.
  Task       70 on host ccs0029 reporting.
  Task       71 on host ccs0029 reporting.
  Task       72 on host ccs0029 reporting.
  Task       73 on host ccs0029 reporting.
  Task       74 on host ccs0029 reporting.
  Task       75 on host ccs0029 reporting.
  Task       76 on host ccs0029 reporting.
  Task       77 on host ccs0029 reporting.
  Task       78 on host ccs0029 reporting.
  Task       79 on host ccs0029 reporting.
  Task       80 on host ccs0034 reporting.
  Task       81 on host ccs0034 reporting.
  Task       82 on host ccs0034 reporting.
  Task       83 on host ccs0034 reporting.
  Task       84 on host ccs0034 reporting.
  Task       85 on host ccs0034 reporting.
  Task       86 on host ccs0034 reporting.
  Task       87 on host ccs0034 reporting.
  Task       88 on host ccs0034 reporting.
  Task       89 on host ccs0034 reporting.
  Task       90 on host ccs0034 reporting.
  Task       91 on host ccs0034 reporting.
  Task       92 on host ccs0034 reporting.
  Task       93 on host ccs0034 reporting.
  Task       94 on host ccs0034 reporting.
  Task       95 on host ccs0034 reporting.
  Task       96 on host ccs0034 reporting.
  Task       97 on host ccs0034 reporting.
  Task       98 on host ccs0034 reporting.
  Task       99 on host ccs0034 reporting.
  Task      100 on host ccs0034 reporting.
  Task      101 on host ccs0034 reporting.
  Task      102 on host ccs0034 reporting.
  Task      103 on host ccs0034 reporting.
  Task      104 on host ccs0034 reporting.
  Task      105 on host ccs0034 reporting.
  Task      106 on host ccs0034 reporting.
  Task      107 on host ccs0034 reporting.
  Task      108 on host ccs0034 reporting.
  Task      109 on host ccs0034 reporting.
  Task      110 on host ccs0034 reporting.
  Task      111 on host ccs0034 reporting.
  Task      112 on host ccs0034 reporting.
  Task      113 on host ccs0034 reporting.
  Task      114 on host ccs0034 reporting.
  Task      115 on host ccs0034 reporting.
  Task      116 on host ccs0034 reporting.
  Task      117 on host ccs0034 reporting.
  Task      118 on host ccs0034 reporting.
  Task      119 on host ccs0034 reporting.

  Performing system and environment tests:
  *** Environment variable OMP_NUM_THREADS is not set
  *** For performance reasons you might want to set it to 1
  | Checking for ScaLAPACK...
  | Testing pdtran()...
  | All pdtran() tests passed.

  Obtaining array dimensions for all initial allocations:
  
  -----------------------------------------------------------------------
  Parsing control.in (first pass over file, find array dimensions only).
  The contents of control.in will be repeated verbatim below
  unless switched off by setting 'verbatim_writeout .false.' .
  in the first line of control.in .
  -----------------------------------------------------------------------
  
  #===============================================================================
  # FHI-aims file: ./control.in
  # Created using the Atomic Simulation Environment (ASE)
  # Tue Oct 25 18:20:37 2022
  #===============================================================================
  spin                               none
  relativistic                       atomic_zora scalar
  compute_forces                     .true.
  compute_analytical_stress          .true.
  xc                                 pbe
  k_grid                             2 2 2
  sc_accuracy_etot                   1e-06
  sc_accuracy_eev                    0.001
  sc_accuracy_rho                    1e-06
  sc_accuracy_forces                 0.0001
  #===============================================================================
  
  ################################################################################
  #
  #  FHI-aims code project
  #  VB, Fritz-Haber Institut, 2009
  #
  #  Suggested "light" defaults for O atom (to be pasted into control.in file)
  #  Be sure to double-check any results obtained with these settings for post-processing,
  #  e.g., with the "tight" defaults and larger basis sets.
  #
  ################################################################################
    species        O
  #     global species definitions
      nucleus             8
      mass                15.9994
  #
      l_hartree           4
  #
      cut_pot             3.5  1.5  1.0
      basis_dep_cutoff    1e-4
  #
      radial_base         36 5.0
      radial_multiplier   1
       angular_grids specified
        division   0.2659   50
        division   0.4451  110
        division   0.6052  194
        division   0.7543  302
  #      division   0.8014  434
  #      division   0.8507  590
  #      division   0.8762  770
  #      division   0.9023  974
  #      division   1.2339 1202
  #      outer_grid 974
        outer_grid 302
  ################################################################################
  #
  #  Definition of "minimal" basis
  #
  ################################################################################
  #     valence basis states
      valence      2  s   2.
      valence      2  p   4.
  #     ion occupancy
      ion_occ      2  s   1.
      ion_occ      2  p   3.
  ################################################################################
  #
  #  Suggested additional basis functions. For production calculations,
  #  uncomment them one after another (the most important basis functions are
  #  listed first).
  #
  #  Constructed for dimers: 1.0 A, 1.208 A, 1.5 A, 2.0 A, 3.0 A
  #
  ################################################################################
  #  "First tier" - improvements: -699.05 meV to -159.38 meV
       hydro 2 p 1.8
       hydro 3 d 7.6
       hydro 3 s 6.4
  #  "Second tier" - improvements: -49.91 meV to -5.39 meV
  #     hydro 4 f 11.6
  #     hydro 3 p 6.2
  #     hydro 3 d 5.6
  #     hydro 5 g 17.6
  #     hydro 1 s 0.75
  #  "Third tier" - improvements: -2.83 meV to -0.50 meV
  #     ionic 2 p auto
  #     hydro 4 f 10.8
  #     hydro 4 d 4.7
  #     hydro 2 s 6.8
  #  "Fourth tier" - improvements: -0.40 meV to -0.12 meV
  #     hydro 3 p 5
  #     hydro 3 s 3.3
  #     hydro 5 g 15.6
  #     hydro 4 f 17.6
  #     hydro 4 d 14
  # Further basis functions - -0.08 meV and below
  #     hydro 3 s 2.1
  #     hydro 4 d 11.6
  #     hydro 3 p 16
  #     hydro 2 s 17.2
  ################################################################################
  #
  #  FHI-aims code project
  #  VB, Fritz-Haber Institut, 2009
  #
  #  Suggested "light" defaults for Si atom (to be pasted into control.in file)
  #  Be sure to double-check any results obtained with these settings for post-processing,
  #  e.g., with the "tight" defaults and larger basis sets.
  #
  #  2020/09/08 Added f function to "light" after reinspection of Delta test outcomes.
  #             This was done for all of Al-Cl and is a tricky decision since it makes
  #             "light" calculations measurably more expensive for these elements.
  #             Nevertheless, outcomes for P, S, Cl (and to some extent, Si) appear
  #             to justify this choice.
  #
  ################################################################################
    species        Si
  #     global species definitions
      nucleus             14
      mass                28.0855
  #
      l_hartree           4
  #
      cut_pot             3.5          1.5  1.0
      basis_dep_cutoff    1e-4
  #
      radial_base         42 5.0
      radial_multiplier   1
      angular_grids       specified
        division   0.5866   50
        division   0.9616  110
        division   1.2249  194
        division   1.3795  302
  #      division   1.4810  434
  #      division   1.5529  590
  #      division   1.6284  770
  #      division   1.7077  974
  #      division   2.4068 1202
  #      outer_grid   974
        outer_grid 302
  ################################################################################
  #
  #  Definition of "minimal" basis
  #
  ################################################################################
  #     valence basis states
      valence      3  s   2.
      valence      3  p   2.
  #     ion occupancy
      ion_occ      3  s   1.
      ion_occ      3  p   1.
  ################################################################################
  #
  #  Suggested additional basis functions. For production calculations,
  #  uncomment them one after another (the most important basis functions are
  #  listed first).
  #
  #  Constructed for dimers: 1.75 A, 2.0 A, 2.25 A, 2.75 A, 3.75 A
  #
  ################################################################################
  #  "First tier" - improvements: -571.96 meV to -37.03 meV
       hydro 3 d 4.2
       hydro 2 p 1.4
       hydro 4 f 6.2
       ionic 3 s auto
  #  "Second tier" - improvements: -16.76 meV to -3.03 meV
  #     hydro 3 d 9
  #     hydro 5 g 9.4
  #     hydro 4 p 4
  #     hydro 1 s 0.65
  #  "Third tier" - improvements: -3.89 meV to -0.60 meV
  #     ionic 3 d auto
  #     hydro 3 s 2.6
  #     hydro 4 f 8.4
  #     hydro 3 d 3.4
  #     hydro 3 p 7.8
  #  "Fourth tier" - improvements: -0.33 meV to -0.11 meV
  #     hydro 2 p 1.6
  #     hydro 5 g 10.8
  #     hydro 5 f 11.2
  #     hydro 3 d 1
  #     hydro 4 s 4.5
  #  Further basis functions that fell out of the optimization - noise
  #  level... < -0.08 meV
  #     hydro 4 d 6.6
  #     hydro 5 g 16.4
  #     hydro 4 d 9
  
  -----------------------------------------------------------------------
  Completed first pass over input file control.in .
  -----------------------------------------------------------------------
  
  
  -----------------------------------------------------------------------
  Parsing geometry.in (first pass over file, find array dimensions only).
  The contents of geometry.in will be repeated verbatim below
  unless switched off by setting 'verbatim_writeout .false.' .
  in the first line of geometry.in .
  -----------------------------------------------------------------------
  
  #=======================================================
  # FHI-aims file: ./geometry.in
  # Created using the Atomic Simulation Environment (ASE)
  # Tue Oct 25 18:20:37 2022
  #=======================================================
  lattice_vector 18.3131717706188688 0.0000000000000000 0.0000000000000000
  lattice_vector 0.0000000000000007 20.7600391121901531 0.0000000000000558
  lattice_vector -0.0000000000000004 -0.0000000000000164 7.6018157367387911
  atom_frac 0.2760588693440084 0.0000000002623237 0.0000000002040039 O
  atom_frac 0.7760588606072987 0.4999999996417805 0.0000000011304522 O
  atom_frac 0.7239411307310120 -0.0000000001532257 0.0000000000037943 O
  atom_frac 0.2239411395127200 0.5000000000624013 0.0000000004780485 O
  atom_frac 0.2760588691026680 -0.0000000000888907 0.4999999996706362 O
  atom_frac 0.7760588605427162 0.5000000000983561 0.4999999991419243 O
  atom_frac 0.7239411308670952 -0.0000000000581166 0.4999999988403674 O
  atom_frac 0.2239411393514327 0.5000000000765840 0.5000000008299748 O
  atom_frac 0.3273772274930740 0.0802923501537510 0.2500000001367865 O
  atom_frac 0.8273772243234319 0.5802923445023712 0.2499999992158531 O
  atom_frac 0.6726227730098528 0.0802923502738015 0.2499999990388695 O
  atom_frac 0.1726227748474103 0.5802923438336792 0.2500000001866655 O
  atom_frac 0.3273772271459011 0.9197076501014673 0.7500000008022485 O
  atom_frac 0.8273772253181301 0.4197076564912258 0.7499999997980179 O
  atom_frac 0.6726227722439593 0.9197076503344584 0.7499999997115872 O
  atom_frac 0.1726227755159950 0.4197076558131528 0.7500000008582458 O
  atom_frac 0.3780624703906871 0.0887461867958718 0.9277708866165120 O
  atom_frac 0.8780624309407969 0.5887461588506476 0.9277709929582895 O
  atom_frac 0.6219375304652848 0.0887461867234262 0.9277708851982701 O
  atom_frac 0.1219375682413468 0.5887461586106326 0.9277709940864586 O
  atom_frac 0.3780624700340214 0.9112538132607753 0.4277708874623616 O
  atom_frac 0.8780624317660027 0.4112538412672022 0.4277709935973737 O
  atom_frac 0.6219375297369533 0.9112538135583206 0.4277708860536668 O
  atom_frac 0.1219375685777270 0.4112538409411458 0.4277709952684902 O
  atom_frac 0.6219375294321224 0.9112538136377097 0.0722291132971433 O
  atom_frac 0.1219375692898850 0.4112538405537827 0.0722290070037926 O
  atom_frac 0.3780624698311528 0.9112538134834055 0.0722291146605119 O
  atom_frac 0.8780624316797712 0.4112538404893279 0.0722290057109827 O
  atom_frac 0.6219375297767714 0.0887461862452280 0.5722291122630359 O
  atom_frac 0.1219375683714416 0.5887461592127150 0.5722290059869193 O
  atom_frac 0.3780624704322326 0.0887461859158319 0.5722291138992003 O
  atom_frac 0.8780624311636782 0.5887461595230333 0.5722290049095616 O
  atom_frac 0.2379693760345084 0.1214724319777414 0.9933673361642457 O
  atom_frac 0.7379694460866068 0.6214723385845198 0.9933673948832944 O
  atom_frac 0.7620306250185197 0.1214724312994993 0.9933673352612732 O
  atom_frac 0.2620305526490254 0.6214723392140503 0.9933673969610991 O
  atom_frac 0.2379693754271627 0.8785275684743279 0.4933673371667915 O
  atom_frac 0.7379694472971193 0.3785276609560743 0.4933673970013727 O
  atom_frac 0.7620306239248603 0.8785275682840182 0.4933673368414372 O
  atom_frac 0.2620305532224962 0.3785276611325902 0.4933673964493949 O
  atom_frac 0.7620306235384257 0.8785275680107298 0.0066326633130447 O
  atom_frac 0.2620305540746114 0.3785276612720902 0.0066326034583174 O
  atom_frac 0.2379693754301206 0.8785275686980160 0.0066326647568615 O
  atom_frac 0.7379694471453776 0.3785276606012328 0.0066326016043682 O
  atom_frac 0.7620306242571385 0.1214724314958431 0.5066326644134681 O
  atom_frac 0.2620305529073327 0.6214723390569663 0.5066326031138946 O
  atom_frac 0.2379693761239045 0.1214724316243266 0.5066326649357599 O
  atom_frac 0.7379694461692031 0.6214723388868179 0.5066326034246279 O
  atom_frac 0.3291987239427374 0.3072627544432284 0.2500000004548812 O
  atom_frac 0.8291987176678606 0.8072627447097798 0.2500000000404672 O
  atom_frac 0.6708012764780921 0.3072627549579943 0.2499999997820780 O
  atom_frac 0.1708012823383692 0.8072627442772462 0.2500000006337203 O
  atom_frac 0.3291987234970963 0.6927372453834781 0.7500000001827235 O
  atom_frac 0.8291987176625880 0.1927372560896009 0.7499999994089127 O
  atom_frac 0.6708012763341511 0.6927372460475505 0.7499999995893429 O
  atom_frac 0.1708012825015479 0.1927372559152710 0.7499999999651904 O
  atom_frac 0.2500000920474042 0.2500001102808554 0.0000000751953878 O
  atom_frac 0.7499999082364348 0.7499998895405547 -0.0000000738668742 O
  atom_frac 0.7499999077283577 0.2500001093397891 0.0000000756217534 O
  atom_frac 0.2500000922634159 0.7499998903152832 -0.0000000752254689 O
  atom_frac 0.2500000925870179 0.7499998901307567 0.5000000750999465 O
  atom_frac 0.7499999077996929 0.2500001096677425 0.4999999239616775 O
  atom_frac 0.7499999078391617 0.7499998899087401 0.5000000735699774 O
  atom_frac 0.2500000924296062 0.2500001099328558 0.4999999249946468 O
  atom_frac 0.3776790357669195 0.3072102555105409 0.9264380526653750 O
  atom_frac 0.8776790405090504 0.8072102367716719 0.9264380125658819 O
  atom_frac 0.6223209646977373 0.3072102556859331 0.9264380519610205 O
  atom_frac 0.1223209591220640 0.8072102366688733 0.9264380130738816 O
  atom_frac 0.3776790354172316 0.6927897435727096 0.4264380519267507 O
  atom_frac 0.8776790405622439 0.1927897630336554 0.4264380112647308 O
  atom_frac 0.6223209643449888 0.6927897438836064 0.4264380512385015 O
  atom_frac 0.1223209596909241 0.1927897629534243 0.4264380117734570 O
  atom_frac 0.6223209644950043 0.6927897440487074 0.0735619476472735 O
  atom_frac 0.1223209593186605 0.1927897636123540 0.0735619873994278 O
  atom_frac 0.3776790350556068 0.6927897439176440 0.0735619483389222 O
  atom_frac 0.8776790410830161 0.1927897637724640 0.0735619867285349 O
  atom_frac 0.6223209648340251 0.3072102565462219 0.5735619483559316 O
  atom_frac 0.1223209593380940 0.8072102363038188 0.5735619885516564 O
  atom_frac 0.3776790353753899 0.3072102565346675 0.5735619489875242 O
  atom_frac 0.8776790404408727 0.8072102366414008 0.5735619880217547 O
  atom_frac 0.0000000003130210 0.3953871890209116 0.2500000000517455 O
  atom_frac 0.4999999997358834 0.8953871729713669 0.2500000005999789 O
  atom_frac -0.0000000002886480 0.6046128110081233 0.7499999994715081 O
  atom_frac 0.5000000002542805 0.1046128269864031 0.7499999998151687 O
  atom_frac 0.1028544186062306 0.3023380719657724 0.2500000017486515 O
  atom_frac 0.6028544146897066 0.8023377901586585 0.2499999998235425 O
  atom_frac 0.8971455818336381 0.3023380720031070 0.2500000014634568 O
  atom_frac 0.3971455848354010 0.8023377899474448 0.2500000008950241 O
  atom_frac 0.1028544182657426 0.6976619277167535 0.7500000015067859 O
  atom_frac 0.6028544151575597 0.1976622097976778 0.7499999976899427 O
  atom_frac 0.8971455812710644 0.6976619279911621 0.7500000004544686 O
  atom_frac 0.3971455852431469 0.1976622097916419 0.7499999979676787 O
  atom_frac 0.0000000000968658 0.2092263700268303 0.2500000005183760 O
  atom_frac 0.4999999997770232 0.7092263486660494 0.2499999992887205 O
  atom_frac -0.0000000001613025 0.7907736298289585 0.7500000002984704 O
  atom_frac 0.5000000001457868 0.2907736512495041 0.7499999996530267 O
  atom_frac 0.3048138710172940 0.0729239146058748 0.0429456000659423 Si
  atom_frac 0.8048138602259658 0.5729239676279017 0.0429455449004655 Si
  atom_frac 0.6951861294975238 0.0729239143881311 0.0429455991122565 Si
  atom_frac 0.1951861390014490 0.5729239676170746 0.0429455458138895 Si
  atom_frac 0.3048138706251201 0.9270760855218941 0.5429456007262603 Si
  atom_frac 0.8048138609409512 0.4270760325198009 0.5429455454312624 Si
  atom_frac 0.6951861289709419 0.9270760856400938 0.5429455997622409 Si
  atom_frac 0.1951861394895000 0.4270760322950534 0.5429455463770669 Si
  atom_frac 0.6951861288174634 0.9270760855639349 0.9570543997836971 Si
  atom_frac 0.1951861398856567 0.4270760321893218 0.9570544551458948 Si
  atom_frac 0.3048138705634295 0.9270760857293702 0.9570544007608406 Si
  atom_frac 0.8048138608707357 0.4270760321368157 0.9570544541951522 Si
  atom_frac 0.6951861291669327 0.0729239143487808 0.4570543991374282 Si
  atom_frac 0.1951861390458167 0.5729239676804033 0.4570544546215781 Si
  atom_frac 0.3048138710283127 0.0729239142624573 0.4570544001315015 Si
  atom_frac 0.8048138602981224 0.5729239679214072 0.4570544537008458 Si
  atom_frac 0.3035473225751379 0.3105272742434264 0.0449389535657599 Si
  atom_frac 0.8035473863236391 0.8105274528042027 0.0449390034782084 Si
  atom_frac 0.6964526778692856 0.3105272741219566 0.0449389529015771 Si
  atom_frac 0.1964526132883887 0.8105274531206305 0.0449390039324294 Si
  atom_frac 0.3035473220541217 0.6894727256901965 0.5449389531430652 Si
  atom_frac 0.8035473863599208 0.1894725470721413 0.5449390026818083 Si
  atom_frac 0.6964526776446459 0.6894727257989665 0.5449389525967724 Si
  atom_frac 0.1964526138657723 0.1894725470751142 0.5449390034188615 Si
  atom_frac 0.6964526777707902 0.6894727256936971 0.9550610464072961 Si
  atom_frac 0.1964526137034582 0.1894725473213010 0.9550609966545597 Si
  atom_frac 0.3035473217899247 0.6894727258974173 0.9550610470145754 Si
  atom_frac 0.8035473866083955 0.1894725470817948 0.9550609962832011 Si
  atom_frac 0.6964526779229312 0.3105272744808267 0.4550610466545256 Si
  atom_frac 0.1964526134025668 0.8105274529188542 0.4550609973709365 Si
  atom_frac 0.3035473223410225 0.3105272743880563 0.4550610471697220 Si
  atom_frac 0.8035473863790947 0.8105274529310817 0.4550609966865934 Si
  atom_frac 0.0868881413625479 0.3796592508918478 0.2500000010059040 Si
  atom_frac 0.5868881430265778 0.8796594324368655 0.2499999998244297 Si
  atom_frac 0.9131118592118423 0.3796592510128154 0.2500000001353842 Si
  atom_frac 0.4131118563987213 0.8796594323427470 0.2500000007764582 Si
  atom_frac 0.0868881407366784 0.6203407489890831 0.7500000003262286 Si
  atom_frac 0.5868881435231517 0.1203405676447301 0.7499999988586429 Si
  atom_frac 0.9131118585745428 0.6203407491373034 0.7499999994909675 Si
  atom_frac 0.4131118569298682 0.1203405675599173 0.7499999996877710 Si
  atom_frac 0.0868553384995681 0.2249320221839550 0.2500000002517749 Si
  atom_frac 0.5868553652741371 0.7249321967443424 0.2499999994727352 Si
  atom_frac 0.9131446619327025 0.2249320222958598 0.2499999998096974 Si
  atom_frac 0.4131446344453187 0.7249321966435780 0.2500000001292759 Si
  atom_frac 0.0868553381324422 0.7750679776353728 0.7500000009100429 Si
  atom_frac 0.5868553655715963 0.2750678032716329 0.7499999995192550 Si
  atom_frac 0.9131446616294177 0.7750679777961659 0.7500000003400372 Si
  atom_frac 0.4131446348338604 0.2750678032152541 0.7499999999110404 Si
  
  -----------------------------------------------------------------------
  Completed first pass over input file geometry.in .
  -----------------------------------------------------------------------
  

  Basic array size parameters:
  | Number of species                 :        2
  | Number of atoms                   :      144
  | Number of lattice vectors         :        3
  | Max. basis fn. angular momentum   :        3
  | Max. atomic/ionic basis occupied n:        3
  | Max. number of basis fn. types    :        3
  | Max. radial fns per species/type  :        5
  | Max. logarithmic grid size        :     1346
  | Max. radial integration grid size :       42
  | Max. angular integration grid size:      302
  | Max. angular grid division number :        8
  | Radial grid for Hartree potential :     1346
  | Number of spin channels           :        1

------------------------------------------------------------
          Reading file control.in.
------------------------------------------------------------
  Spin treatment: No spin polarisation.
  Scalar relativistic treatment of kinetic energy: on-site free-atom approximation to ZORA.
  Forces will be computed.
  XC: Using PBE gradient-corrected functionals.
  Found k-point grid:         2         2         2
  Convergence accuracy of total energy:  0.1000E-05
  Convergence accuracy of sum of eigenvalues:  0.1000E-02
  Convergence accuracy of self-consistent charge density:  0.1000E-05
  Convergence accuracy of forces:  0.1000E-03
 
  Reading configuration options for species O                   .
  | Found nuclear charge :   8.0000
  | Found atomic mass :    15.9994000000000      amu
  | Found l_max for Hartree potential  :   4
  | Found cutoff potl. onset [A], width [A], scale factor :    3.50000    1.50000    1.00000
  | Threshold for basis-dependent cutoff potential is   0.100000E-03
  | Found data for basic radial integration grid :    36 points, outermost radius =    5.000 A
  | Found multiplier for basic radial grid :   1
  | Found angular grid specification: user-specified.
  | Specified grid contains     5 separate shells.
  | Check grid settings after all constraints further below.
  | Found free-atom valence shell :  2 s   2.000
  | Found free-atom valence shell :  2 p   4.000
  | Found free-ion valence shell :  2 s   1.000
  | Found free-ion valence shell :  2 p   3.000
  | Found hydrogenic basis function :  2 p   1.800
  | Found hydrogenic basis function :  3 d   7.600
  | Found hydrogenic basis function :  3 s   6.400
  Species O                   : Missing cutoff potential type.
  Defaulting to exp(1/x)/(1-x)^2 type cutoff potential.
  Species O : No 'logarithmic' tag. Using default grid for free atom:
  | Default logarithmic grid data [bohr] : 0.1000E-03 0.1000E+03 0.1012E+01
  Species O : On-site basis accuracy parameter (for Gram-Schmidt orthonormalisation) not specified.
  Using default value basis_acc =  0.1000000E-03.
  Species O                   : Using default innermost maximum threshold i_radial=  2 for radial functions.
  Species O                   : Default cutoff onset for free atom density etc. : 0.35000000E+01 AA.
  Species O                   : Basic radial grid will be enhanced according to radial_multiplier =   1, to contain    36 grid points.
 
  Reading configuration options for species Si                  .
  | Found nuclear charge :  14.0000
  | Found atomic mass :    28.0855000000000      amu
  | Found l_max for Hartree potential  :   4
  | Found cutoff potl. onset [A], width [A], scale factor :    3.50000    1.50000    1.00000
  | Threshold for basis-dependent cutoff potential is   0.100000E-03
  | Found data for basic radial integration grid :    42 points, outermost radius =    5.000 A
  | Found multiplier for basic radial grid :   1
  | Found angular grid specification: user-specified.
  | Specified grid contains     5 separate shells.
  | Check grid settings after all constraints further below.
  | Found free-atom valence shell :  3 s   2.000
  | Found free-atom valence shell :  3 p   2.000
  | Found free-ion valence shell :  3 s   1.000
  | Found free-ion valence shell :  3 p   1.000
  | Found hydrogenic basis function :  3 d   4.200
  | Found hydrogenic basis function :  2 p   1.400
  | Found hydrogenic basis function :  4 f   6.200
  | Found ionic basis function :  3 s , default cutoff radius.
  Species Si                  : Missing cutoff potential type.
  Defaulting to exp(1/x)/(1-x)^2 type cutoff potential.
  Species Si: No 'logarithmic' tag. Using default grid for free atom:
  | Default logarithmic grid data [bohr] : 0.1000E-03 0.1000E+03 0.1012E+01
  | Will include ionic basis functions of  2.0-fold positive Si                   ion.
  Species Si: On-site basis accuracy parameter (for Gram-Schmidt orthonormalisation) not specified.
  Using default value basis_acc =  0.1000000E-03.
  Species Si                  : Using default innermost maximum threshold i_radial=  2 for radial functions.
  Species Si                  : Default cutoff onset for free atom density etc. : 0.35000000E+01 AA.
  Species Si                  : Basic radial grid will be enhanced according to radial_multiplier =   1, to contain    42 grid points.
 
  Finished reading input file 'control.in'.
 
------------------------------------------------------------


------------------------------------------------------------
          Reading geometry description geometry.in.
------------------------------------------------------------
  | The smallest distance between any two atoms is         1.62367069 AA.
  | The first atom of this pair is atom number                     95 .
  | The second atom of this pair is atom number                   143 .
  | Wigner-Seitz cell of the first atom image           0     0     0 .
  | (The Wigner-Seitz cell of the second atom is 0 0 0  by definition.)

  Symmetry information by spglib:
  | Precision set to  0.1E-04
  | Number of Operations  : 8
  | Space group           : 51
  | International         : Pmma      b
  | Schoenflies           : D2h^5
  Input structure read successfully.
  The structure contains      144 atoms,  and a total of       1440.000 electrons.

  Input geometry:
  | Unit cell:
  |       18.31317177        0.00000000        0.00000000
  |        0.00000000       20.76003911        0.00000000
  |       -0.00000000       -0.00000000        7.60181574
  | Atomic structure:
  |       Atom                x [A]            y [A]            z [A]
  |    1: Species O             5.05551349        0.00000001        0.00000000
  |    2: Species O            14.21209922       10.38001955        0.00000001
  |    3: Species O            13.25765828       -0.00000000        0.00000000
  |    4: Species O             4.10107255       10.38001956        0.00000000
  |    5: Species O             5.05551349       -0.00000000        3.80090787
  |    6: Species O            14.21209922       10.38001956        3.80090786
  |    7: Species O            13.25765828       -0.00000000        3.80090786
  |    8: Species O             4.10107255       10.38001956        3.80090787
  |    9: Species O             5.99531540        1.66687233        1.90045394
  |   10: Species O            15.15190123       12.04689177        1.90045393
  |   11: Species O            12.31785638        1.66687233        1.90045393
  |   12: Species O             3.16127053       12.04689175        1.90045394
  |   13: Species O             5.99531539       19.09316679        5.70136181
  |   14: Species O            15.15190125        8.71314736        5.70136180
  |   15: Species O            12.31785636       19.09316679        5.70136180
  |   16: Species O             3.16127054        8.71314735        5.70136181
  |   17: Species O             6.92352296        1.84237431        7.05274333
  |   18: Species O            16.08010812       12.22239328        7.05274413
  |   19: Species O            11.38964883        1.84237431        7.05274332
  |   20: Species O             2.23306363       12.22239328        7.05274414
  |   21: Species O             6.92352295       18.91766480        3.25183546
  |   22: Species O            16.08010814        8.53764583        3.25183627
  |   23: Species O            11.38964881       18.91766481        3.25183545
  |   24: Species O             2.23306364        8.53764582        3.25183628
  |   25: Species O            11.38964881       18.91766481        0.54907241
  |   26: Species O             2.23306365        8.53764581        0.54907160
  |   27: Species O             6.92352295       18.91766481        0.54907242
  |   28: Species O            16.08010814        8.53764581        0.54907159
  |   29: Species O            11.38964881        1.84237430        4.34998027
  |   30: Species O             2.23306363       12.22239329        4.34997946
  |   31: Species O             6.92352296        1.84237429        4.34998028
  |   32: Species O            16.08010813       12.22239330        4.34997945
  |   33: Species O             4.35797406        2.52177244        7.55139545
  |   34: Species O            13.51456123       12.90179006        7.55139589
  |   35: Species O            13.95519773        2.52177242        7.55139544
  |   36: Species O             4.79861052       12.90179007        7.55139591
  |   37: Species O             4.35797405       18.23826668        3.75048759
  |   38: Species O            13.51456125        7.85824905        3.75048804
  |   39: Species O            13.95519771       18.23826668        3.75048759
  |   40: Species O             4.79861053        7.85824905        3.75048804
  |   41: Species O            13.95519770       18.23826667        0.05042028
  |   42: Species O             4.79861055        7.85824905        0.05041983
  |   43: Species O             4.35797405       18.23826669        0.05042030
  |   44: Species O            13.51456125        7.85824904        0.05041982
  |   45: Species O            13.95519772        2.52177243        3.85132816
  |   46: Species O             4.79861052       12.90179007        3.85132770
  |   47: Species O             4.35797406        2.52177243        3.85132817
  |   48: Species O            13.51456123       12.90179006        3.85132770
  |   49: Species O             6.02867278        6.37878680        1.90045394
  |   50: Species O            15.18525855       16.75880615        1.90045393
  |   51: Species O            12.28449900        6.37878681        1.90045393
  |   52: Species O             3.12791322       16.75880615        1.90045394
  |   53: Species O             6.02867277       14.38125231        5.70136180
  |   54: Species O            15.18525855        4.00123297        5.70136180
  |   55: Species O            12.28449900       14.38125232        5.70136180
  |   56: Species O             3.12791323        4.00123297        5.70136180
  |   57: Species O             4.57829463        5.19001207        0.00000057
  |   58: Species O            13.73487715       15.57002704       -0.00000056
  |   59: Species O            13.73487714        5.19001205        0.00000057
  |   60: Species O             4.57829463       15.57002706       -0.00000057
  |   61: Species O             4.57829464       15.57002705        3.80090844
  |   62: Species O            13.73487714        5.19001205        3.80090729
  |   63: Species O            13.73487714       15.57002705        3.80090843
  |   64: Species O             4.57829464        5.19001206        3.80090730
  |   65: Species O             6.91650106        6.37769692        7.04261137
  |   66: Species O            16.07308703       16.75771609        7.04261106
  |   67: Species O            11.39667072        6.37769692        7.04261136
  |   68: Species O             2.24008474       16.75771609        7.04261107
  |   69: Species O             6.91650105       14.38234217        3.24170349
  |   70: Species O            16.07308703        4.00232302        3.24170318
  |   71: Species O            11.39667072       14.38234218        3.24170349
  |   72: Species O             2.24008475        4.00232302        3.24170319
  |   73: Species O            11.39667072       14.38234218        0.55920437
  |   74: Species O             2.24008474        4.00232303        0.55920467
  |   75: Species O             6.91650104       14.38234218        0.55920438
  |   76: Species O            16.07308704        4.00232304        0.55920467
  |   77: Species O            11.39667073        6.37769694        4.36011225
  |   78: Species O             2.24008474       16.75771608        4.36011255
  |   79: Species O             6.91650105        6.37769694        4.36011225
  |   80: Species O            16.07308703       16.75771608        4.36011255
  |   81: Species O             0.00000001        8.20825351        1.90045393
  |   82: Species O             9.15658588       18.58827273        1.90045394
  |   83: Species O            -0.00000001       12.55178560        5.70136180
  |   84: Species O             9.15658589        2.17176638        5.70136180
  |   85: Species O             1.88359064        6.27655020        1.90045395
  |   86: Species O            11.04017645       16.65656390        1.90045393
  |   87: Species O            16.42958114        6.27655020        1.90045395
  |   88: Species O             7.27299531       16.65656390        1.90045394
  |   89: Species O             1.88359063       14.48348891        5.70136181
  |   90: Species O            11.04017646        4.10347521        5.70136178
  |   91: Species O            16.42958113       14.48348891        5.70136181
  |   92: Species O             7.27299532        4.10347521        5.70136179
  |   93: Species O             0.00000000        4.34354763        1.90045394
  |   94: Species O             9.15658588       14.72356674        1.90045393
  |   95: Species O            -0.00000000       16.41649148        5.70136180
  |   96: Species O             9.15658589        6.03647237        5.70136180
  |   97: Species Si            5.58210878        1.51390332        0.32646454
  |   98: Species Si           14.73869447       11.89392398        0.32646412
  |   99: Species Si           12.73106300        1.51390331        0.32646453
  |  100: Species Si            3.57447729       11.89392398        0.32646413
  |  101: Species Si            5.58210877       19.24613580        4.12737241
  |  102: Species Si           14.73869448        8.86611514        4.12737199
  |  103: Species Si           12.73106299       19.24613580        4.12737240
  |  104: Species Si            3.57447730        8.86611513        4.12737200
  |  105: Species Si           12.73106299       19.24613580        7.27535120
  |  106: Species Si            3.57447731        8.86611513        7.27535162
  |  107: Species Si            5.58210877       19.24613580        7.27535120
  |  108: Species Si           14.73869448        8.86611513        7.27535161
  |  109: Species Si           12.73106300        1.51390331        3.47444332
  |  110: Species Si            3.57447729       11.89392398        3.47444375
  |  111: Species Si            5.58210878        1.51390331        3.47444333
  |  112: Species Si           14.73869447       11.89392398        3.47444374
  |  113: Species Si            5.55891426        6.44655836        0.34161764
  |  114: Species Si           14.71550131       16.82658162        0.34161802
  |  115: Species Si           12.75425752        6.44655836        0.34161764
  |  116: Species Si            3.59767045       16.82658163        0.34161803
  |  117: Species Si            5.55891425       14.31348075        4.14252551
  |  118: Species Si           14.71550131        3.93345749        4.14252589
  |  119: Species Si           12.75425752       14.31348075        4.14252551
  |  120: Species Si            3.59767046        3.93345749        4.14252589
  |  121: Species Si           12.75425752       14.31348075        7.26019809
  |  122: Species Si            3.59767046        3.93345749        7.26019771
  |  123: Species Si            5.55891424       14.31348076        7.26019810
  |  124: Species Si           14.71550132        3.93345749        7.26019771
  |  125: Species Si           12.75425752        6.44655836        3.45929023
  |  126: Species Si            3.59767045       16.82658162        3.45928985
  |  127: Species Si            5.55891425        6.44655836        3.45929023
  |  128: Species Si           14.71550131       16.82658162        3.45928985
  |  129: Species Si            1.59119746        7.88174090        1.90045394
  |  130: Species Si           10.74778337       18.26176422        1.90045393
  |  131: Species Si           16.72197432        7.88174090        1.90045394
  |  132: Species Si            7.56538839       18.26176422        1.90045394
  |  133: Species Si            1.59119745       12.87829821        5.70136181
  |  134: Species Si           10.74778338        2.49827489        5.70136179
  |  135: Species Si           16.72197431       12.87829821        5.70136180
  |  136: Species Si            7.56538840        2.49827489        5.70136180
  |  137: Species Si            1.59059673        4.66959758        1.90045394
  |  138: Species Si           10.74718311       15.04962076        1.90045393
  |  139: Species Si           16.72257505        4.66959758        1.90045393
  |  140: Species Si            7.56598866       15.04962076        1.90045394
  |  141: Species Si            1.59059673       16.09044153        5.70136181
  |  142: Species Si           10.74718311        5.71041835        5.70136180
  |  143: Species Si           16.72257504       16.09044153        5.70136181
  |  144: Species Si            7.56598866        5.71041835        5.70136180

  Lattice parameters for 3D lattice (in Angstroms) :    18.313172   20.760039    7.601816
  Angle(s) between unit vectors (in degrees)       :    90.000000   90.000000   90.000000


  Quantities derived from the lattice vectors:
  | Reciprocal lattice vector 1:  0.343097  0.000000  0.000000
  | Reciprocal lattice vector 2:  0.000000  0.302658  0.000000
  | Reciprocal lattice vector 3:  0.000000 -0.000000  0.826537
  | Unit cell volume                               :   0.289007E+04  A^3

  Fractional coordinates:
                         L1                L2                L3
       atom_frac         0.27605887        0.00000000        0.00000000  O
       atom_frac         0.77605886        0.50000000        0.00000000  O
       atom_frac         0.72394113       -0.00000000        0.00000000  O
       atom_frac         0.22394114        0.50000000        0.00000000  O
       atom_frac         0.27605887       -0.00000000        0.50000000  O
       atom_frac         0.77605886        0.50000000        0.50000000  O
       atom_frac         0.72394113       -0.00000000        0.50000000  O
       atom_frac         0.22394114        0.50000000        0.50000000  O
       atom_frac         0.32737723        0.08029235        0.25000000  O
       atom_frac         0.82737722        0.58029234        0.25000000  O
       atom_frac         0.67262277        0.08029235        0.25000000  O
       atom_frac         0.17262277        0.58029234        0.25000000  O
       atom_frac         0.32737723        0.91970765        0.75000000  O
       atom_frac         0.82737723        0.41970766        0.75000000  O
       atom_frac         0.67262277        0.91970765        0.75000000  O
       atom_frac         0.17262278        0.41970766        0.75000000  O
       atom_frac         0.37806247        0.08874619        0.92777089  O
       atom_frac         0.87806243        0.58874616        0.92777099  O
       atom_frac         0.62193753        0.08874619        0.92777089  O
       atom_frac         0.12193757        0.58874616        0.92777099  O
       atom_frac         0.37806247        0.91125381        0.42777089  O
       atom_frac         0.87806243        0.41125384        0.42777099  O
       atom_frac         0.62193753        0.91125381        0.42777089  O
       atom_frac         0.12193757        0.41125384        0.42777100  O
       atom_frac         0.62193753        0.91125381        0.07222911  O
       atom_frac         0.12193757        0.41125384        0.07222901  O
       atom_frac         0.37806247        0.91125381        0.07222911  O
       atom_frac         0.87806243        0.41125384        0.07222901  O
       atom_frac         0.62193753        0.08874619        0.57222911  O
       atom_frac         0.12193757        0.58874616        0.57222901  O
       atom_frac         0.37806247        0.08874619        0.57222911  O
       atom_frac         0.87806243        0.58874616        0.57222900  O
       atom_frac         0.23796938        0.12147243        0.99336734  O
       atom_frac         0.73796945        0.62147234        0.99336739  O
       atom_frac         0.76203063        0.12147243        0.99336734  O
       atom_frac         0.26203055        0.62147234        0.99336740  O
       atom_frac         0.23796938        0.87852757        0.49336734  O
       atom_frac         0.73796945        0.37852766        0.49336740  O
       atom_frac         0.76203062        0.87852757        0.49336734  O
       atom_frac         0.26203055        0.37852766        0.49336740  O
       atom_frac         0.76203062        0.87852757        0.00663266  O
       atom_frac         0.26203055        0.37852766        0.00663260  O
       atom_frac         0.23796938        0.87852757        0.00663266  O
       atom_frac         0.73796945        0.37852766        0.00663260  O
       atom_frac         0.76203062        0.12147243        0.50663266  O
       atom_frac         0.26203055        0.62147234        0.50663260  O
       atom_frac         0.23796938        0.12147243        0.50663266  O
       atom_frac         0.73796945        0.62147234        0.50663260  O
       atom_frac         0.32919872        0.30726275        0.25000000  O
       atom_frac         0.82919872        0.80726274        0.25000000  O
       atom_frac         0.67080128        0.30726275        0.25000000  O
       atom_frac         0.17080128        0.80726274        0.25000000  O
       atom_frac         0.32919872        0.69273725        0.75000000  O
       atom_frac         0.82919872        0.19273726        0.75000000  O
       atom_frac         0.67080128        0.69273725        0.75000000  O
       atom_frac         0.17080128        0.19273726        0.75000000  O
       atom_frac         0.25000009        0.25000011        0.00000008  O
       atom_frac         0.74999991        0.74999989       -0.00000007  O
       atom_frac         0.74999991        0.25000011        0.00000008  O
       atom_frac         0.25000009        0.74999989       -0.00000008  O
       atom_frac         0.25000009        0.74999989        0.50000008  O
       atom_frac         0.74999991        0.25000011        0.49999992  O
       atom_frac         0.74999991        0.74999989        0.50000007  O
       atom_frac         0.25000009        0.25000011        0.49999992  O
       atom_frac         0.37767904        0.30721026        0.92643805  O
       atom_frac         0.87767904        0.80721024        0.92643801  O
       atom_frac         0.62232096        0.30721026        0.92643805  O
       atom_frac         0.12232096        0.80721024        0.92643801  O
       atom_frac         0.37767904        0.69278974        0.42643805  O
       atom_frac         0.87767904        0.19278976        0.42643801  O
       atom_frac         0.62232096        0.69278974        0.42643805  O
       atom_frac         0.12232096        0.19278976        0.42643801  O
       atom_frac         0.62232096        0.69278974        0.07356195  O
       atom_frac         0.12232096        0.19278976        0.07356199  O
       atom_frac         0.37767904        0.69278974        0.07356195  O
       atom_frac         0.87767904        0.19278976        0.07356199  O
       atom_frac         0.62232096        0.30721026        0.57356195  O
       atom_frac         0.12232096        0.80721024        0.57356199  O
       atom_frac         0.37767904        0.30721026        0.57356195  O
       atom_frac         0.87767904        0.80721024        0.57356199  O
       atom_frac         0.00000000        0.39538719        0.25000000  O
       atom_frac         0.50000000        0.89538717        0.25000000  O
       atom_frac        -0.00000000        0.60461281        0.75000000  O
       atom_frac         0.50000000        0.10461283        0.75000000  O
       atom_frac         0.10285442        0.30233807        0.25000000  O
       atom_frac         0.60285441        0.80233779        0.25000000  O
       atom_frac         0.89714558        0.30233807        0.25000000  O
       atom_frac         0.39714558        0.80233779        0.25000000  O
       atom_frac         0.10285442        0.69766193        0.75000000  O
       atom_frac         0.60285442        0.19766221        0.75000000  O
       atom_frac         0.89714558        0.69766193        0.75000000  O
       atom_frac         0.39714559        0.19766221        0.75000000  O
       atom_frac         0.00000000        0.20922637        0.25000000  O
       atom_frac         0.50000000        0.70922635        0.25000000  O
       atom_frac        -0.00000000        0.79077363        0.75000000  O
       atom_frac         0.50000000        0.29077365        0.75000000  O
       atom_frac         0.30481387        0.07292391        0.04294560  Si
       atom_frac         0.80481386        0.57292397        0.04294554  Si
       atom_frac         0.69518613        0.07292391        0.04294560  Si
       atom_frac         0.19518614        0.57292397        0.04294555  Si
       atom_frac         0.30481387        0.92707609        0.54294560  Si
       atom_frac         0.80481386        0.42707603        0.54294555  Si
       atom_frac         0.69518613        0.92707609        0.54294560  Si
       atom_frac         0.19518614        0.42707603        0.54294555  Si
       atom_frac         0.69518613        0.92707609        0.95705440  Si
       atom_frac         0.19518614        0.42707603        0.95705446  Si
       atom_frac         0.30481387        0.92707609        0.95705440  Si
       atom_frac         0.80481386        0.42707603        0.95705445  Si
       atom_frac         0.69518613        0.07292391        0.45705440  Si
       atom_frac         0.19518614        0.57292397        0.45705445  Si
       atom_frac         0.30481387        0.07292391        0.45705440  Si
       atom_frac         0.80481386        0.57292397        0.45705445  Si
       atom_frac         0.30354732        0.31052727        0.04493895  Si
       atom_frac         0.80354739        0.81052745        0.04493900  Si
       atom_frac         0.69645268        0.31052727        0.04493895  Si
       atom_frac         0.19645261        0.81052745        0.04493900  Si
       atom_frac         0.30354732        0.68947273        0.54493895  Si
       atom_frac         0.80354739        0.18947255        0.54493900  Si
       atom_frac         0.69645268        0.68947273        0.54493895  Si
       atom_frac         0.19645261        0.18947255        0.54493900  Si
       atom_frac         0.69645268        0.68947273        0.95506105  Si
       atom_frac         0.19645261        0.18947255        0.95506100  Si
       atom_frac         0.30354732        0.68947273        0.95506105  Si
       atom_frac         0.80354739        0.18947255        0.95506100  Si
       atom_frac         0.69645268        0.31052727        0.45506105  Si
       atom_frac         0.19645261        0.81052745        0.45506100  Si
       atom_frac         0.30354732        0.31052727        0.45506105  Si
       atom_frac         0.80354739        0.81052745        0.45506100  Si
       atom_frac         0.08688814        0.37965925        0.25000000  Si
       atom_frac         0.58688814        0.87965943        0.25000000  Si
       atom_frac         0.91311186        0.37965925        0.25000000  Si
       atom_frac         0.41311186        0.87965943        0.25000000  Si
       atom_frac         0.08688814        0.62034075        0.75000000  Si
       atom_frac         0.58688814        0.12034057        0.75000000  Si
       atom_frac         0.91311186        0.62034075        0.75000000  Si
       atom_frac         0.41311186        0.12034057        0.75000000  Si
       atom_frac         0.08685534        0.22493202        0.25000000  Si
       atom_frac         0.58685537        0.72493220        0.25000000  Si
       atom_frac         0.91314466        0.22493202        0.25000000  Si
       atom_frac         0.41314463        0.72493220        0.25000000  Si
       atom_frac         0.08685534        0.77506798        0.75000000  Si
       atom_frac         0.58685537        0.27506780        0.75000000  Si
       atom_frac         0.91314466        0.77506798        0.75000000  Si
       atom_frac         0.41314463        0.27506780        0.75000000  Si

 
  Finished reading input file 'control.in'.
 

------------------------------------------------------------
          Reading geometry description geometry.in.
------------------------------------------------------------
 
  Consistency checks for stacksize environment parameter are next.
 
  | Maximum stacksize for task 0: unlimited
  | Maximum stacksize for task 1: unlimited
  | Maximum stacksize for task 2: unlimited
  | Maximum stacksize for task 3: unlimited
  | Maximum stacksize for task 4: unlimited
  | Maximum stacksize for task 5: unlimited
  | Maximum stacksize for task 6: unlimited
  | Maximum stacksize for task 7: unlimited
  | Maximum stacksize for task 8: unlimited
  | Maximum stacksize for task 9: unlimited
  | Maximum stacksize for task 10: unlimited
  | Maximum stacksize for task 11: unlimited
  | Maximum stacksize for task 12: unlimited
  | Maximum stacksize for task 13: unlimited
  | Maximum stacksize for task 14: unlimited
  | Maximum stacksize for task 15: unlimited
  | Maximum stacksize for task 16: unlimited
  | Maximum stacksize for task 17: unlimited
  | Maximum stacksize for task 18: unlimited
  | Maximum stacksize for task 19: unlimited
  | Maximum stacksize for task 20: unlimited
  | Maximum stacksize for task 21: unlimited
  | Maximum stacksize for task 22: unlimited
  | Maximum stacksize for task 23: unlimited
  | Maximum stacksize for task 24: unlimited
  | Maximum stacksize for task 25: unlimited
  | Maximum stacksize for task 26: unlimited
  | Maximum stacksize for task 27: unlimited
  | Maximum stacksize for task 28: unlimited
  | Maximum stacksize for task 29: unlimited
  | Maximum stacksize for task 30: unlimited
  | Maximum stacksize for task 31: unlimited
  | Maximum stacksize for task 32: unlimited
  | Maximum stacksize for task 33: unlimited
  | Maximum stacksize for task 34: unlimited
  | Maximum stacksize for task 35: unlimited
  | Maximum stacksize for task 36: unlimited
  | Maximum stacksize for task 37: unlimited
  | Maximum stacksize for task 38: unlimited
  | Maximum stacksize for task 39: unlimited
  | Maximum stacksize for task 40: unlimited
  | Maximum stacksize for task 41: unlimited
  | Maximum stacksize for task 42: unlimited
  | Maximum stacksize for task 43: unlimited
  | Maximum stacksize for task 44: unlimited
  | Maximum stacksize for task 45: unlimited
  | Maximum stacksize for task 46: unlimited
  | Maximum stacksize for task 47: unlimited
  | Maximum stacksize for task 48: unlimited
  | Maximum stacksize for task 49: unlimited
  | Maximum stacksize for task 50: unlimited
  | Maximum stacksize for task 51: unlimited
  | Maximum stacksize for task 52: unlimited
  | Maximum stacksize for task 53: unlimited
  | Maximum stacksize for task 54: unlimited
  | Maximum stacksize for task 55: unlimited
  | Maximum stacksize for task 56: unlimited
  | Maximum stacksize for task 57: unlimited
  | Maximum stacksize for task 58: unlimited
  | Maximum stacksize for task 59: unlimited
  | Maximum stacksize for task 60: unlimited
  | Maximum stacksize for task 61: unlimited
  | Maximum stacksize for task 62: unlimited
  | Maximum stacksize for task 63: unlimited
  | Maximum stacksize for task 64: unlimited
  | Maximum stacksize for task 65: unlimited
  | Maximum stacksize for task 66: unlimited
  | Maximum stacksize for task 67: unlimited
  | Maximum stacksize for task 68: unlimited
  | Maximum stacksize for task 69: unlimited
  | Maximum stacksize for task 70: unlimited
  | Maximum stacksize for task 71: unlimited
  | Maximum stacksize for task 72: unlimited
  | Maximum stacksize for task 73: unlimited
  | Maximum stacksize for task 74: unlimited
  | Maximum stacksize for task 75: unlimited
  | Maximum stacksize for task 76: unlimited
  | Maximum stacksize for task 77: unlimited
  | Maximum stacksize for task 78: unlimited
  | Maximum stacksize for task 79: unlimited
  | Maximum stacksize for task 80: unlimited
  | Maximum stacksize for task 81: unlimited
  | Maximum stacksize for task 82: unlimited
  | Maximum stacksize for task 83: unlimited
  | Maximum stacksize for task 84: unlimited
  | Maximum stacksize for task 85: unlimited
  | Maximum stacksize for task 86: unlimited
  | Maximum stacksize for task 87: unlimited
  | Maximum stacksize for task 88: unlimited
  | Maximum stacksize for task 89: unlimited
  | Maximum stacksize for task 90: unlimited
  | Maximum stacksize for task 91: unlimited
  | Maximum stacksize for task 92: unlimited
  | Maximum stacksize for task 93: unlimited
  | Maximum stacksize for task 94: unlimited
  | Maximum stacksize for task 95: unlimited
  | Maximum stacksize for task 96: unlimited
  | Maximum stacksize for task 97: unlimited
  | Maximum stacksize for task 98: unlimited
  | Maximum stacksize for task 99: unlimited
  | Maximum stacksize for task 100: unlimited
  | Maximum stacksize for task 101: unlimited
  | Maximum stacksize for task 102: unlimited
  | Maximum stacksize for task 103: unlimited
  | Maximum stacksize for task 104: unlimited
  | Maximum stacksize for task 105: unlimited
  | Maximum stacksize for task 106: unlimited
  | Maximum stacksize for task 107: unlimited
  | Maximum stacksize for task 108: unlimited
  | Maximum stacksize for task 109: unlimited
  | Maximum stacksize for task 110: unlimited
  | Maximum stacksize for task 111: unlimited
  | Maximum stacksize for task 112: unlimited
  | Maximum stacksize for task 113: unlimited
  | Maximum stacksize for task 114: unlimited
  | Maximum stacksize for task 115: unlimited
  | Maximum stacksize for task 116: unlimited
  | Maximum stacksize for task 117: unlimited
  | Maximum stacksize for task 118: unlimited
  | Maximum stacksize for task 119: unlimited
  | Current stacksize for task 0: unlimited
  | Current stacksize for task 1: unlimited
  | Current stacksize for task 2: unlimited
  | Current stacksize for task 3: unlimited
  | Current stacksize for task 4: unlimited
  | Current stacksize for task 5: unlimited
  | Current stacksize for task 6: unlimited
  | Current stacksize for task 7: unlimited
  | Current stacksize for task 8: unlimited
  | Current stacksize for task 9: unlimited
  | Current stacksize for task 10: unlimited
  | Current stacksize for task 11: unlimited
  | Current stacksize for task 12: unlimited
  | Current stacksize for task 13: unlimited
  | Current stacksize for task 14: unlimited
  | Current stacksize for task 15: unlimited
  | Current stacksize for task 16: unlimited
  | Current stacksize for task 17: unlimited
  | Current stacksize for task 18: unlimited
  | Current stacksize for task 19: unlimited
  | Current stacksize for task 20: unlimited
  | Current stacksize for task 21: unlimited
  | Current stacksize for task 22: unlimited
  | Current stacksize for task 23: unlimited
  | Current stacksize for task 24: unlimited
  | Current stacksize for task 25: unlimited
  | Current stacksize for task 26: unlimited
  | Current stacksize for task 27: unlimited
  | Current stacksize for task 28: unlimited
  | Current stacksize for task 29: unlimited
  | Current stacksize for task 30: unlimited
  | Current stacksize for task 31: unlimited
  | Current stacksize for task 32: unlimited
  | Current stacksize for task 33: unlimited
  | Current stacksize for task 34: unlimited
  | Current stacksize for task 35: unlimited
  | Current stacksize for task 36: unlimited
  | Current stacksize for task 37: unlimited
  | Current stacksize for task 38: unlimited
  | Current stacksize for task 39: unlimited
  | Current stacksize for task 40: unlimited
  | Current stacksize for task 41: unlimited
  | Current stacksize for task 42: unlimited
  | Current stacksize for task 43: unlimited
  | Current stacksize for task 44: unlimited
  | Current stacksize for task 45: unlimited
  | Current stacksize for task 46: unlimited
  | Current stacksize for task 47: unlimited
  | Current stacksize for task 48: unlimited
  | Current stacksize for task 49: unlimited
  | Current stacksize for task 50: unlimited
  | Current stacksize for task 51: unlimited
  | Current stacksize for task 52: unlimited
  | Current stacksize for task 53: unlimited
  | Current stacksize for task 54: unlimited
  | Current stacksize for task 55: unlimited
  | Current stacksize for task 56: unlimited
  | Current stacksize for task 57: unlimited
  | Current stacksize for task 58: unlimited
  | Current stacksize for task 59: unlimited
  | Current stacksize for task 60: unlimited
  | Current stacksize for task 61: unlimited
  | Current stacksize for task 62: unlimited
  | Current stacksize for task 63: unlimited
  | Current stacksize for task 64: unlimited
  | Current stacksize for task 65: unlimited
  | Current stacksize for task 66: unlimited
  | Current stacksize for task 67: unlimited
  | Current stacksize for task 68: unlimited
  | Current stacksize for task 69: unlimited
  | Current stacksize for task 70: unlimited
  | Current stacksize for task 71: unlimited
  | Current stacksize for task 72: unlimited
  | Current stacksize for task 73: unlimited
  | Current stacksize for task 74: unlimited
  | Current stacksize for task 75: unlimited
  | Current stacksize for task 76: unlimited
  | Current stacksize for task 77: unlimited
  | Current stacksize for task 78: unlimited
  | Current stacksize for task 79: unlimited
  | Current stacksize for task 80: unlimited
  | Current stacksize for task 81: unlimited
  | Current stacksize for task 82: unlimited
  | Current stacksize for task 83: unlimited
  | Current stacksize for task 84: unlimited
  | Current stacksize for task 85: unlimited
  | Current stacksize for task 86: unlimited
  | Current stacksize for task 87: unlimited
  | Current stacksize for task 88: unlimited
  | Current stacksize for task 89: unlimited
  | Current stacksize for task 90: unlimited
  | Current stacksize for task 91: unlimited
  | Current stacksize for task 92: unlimited
  | Current stacksize for task 93: unlimited
  | Current stacksize for task 94: unlimited
  | Current stacksize for task 95: unlimited
  | Current stacksize for task 96: unlimited
  | Current stacksize for task 97: unlimited
  | Current stacksize for task 98: unlimited
  | Current stacksize for task 99: unlimited
  | Current stacksize for task 100: unlimited
  | Current stacksize for task 101: unlimited
  | Current stacksize for task 102: unlimited
  | Current stacksize for task 103: unlimited
  | Current stacksize for task 104: unlimited
  | Current stacksize for task 105: unlimited
  | Current stacksize for task 106: unlimited
  | Current stacksize for task 107: unlimited
  | Current stacksize for task 108: unlimited
  | Current stacksize for task 109: unlimited
  | Current stacksize for task 110: unlimited
  | Current stacksize for task 111: unlimited
  | Current stacksize for task 112: unlimited
  | Current stacksize for task 113: unlimited
  | Current stacksize for task 114: unlimited
  | Current stacksize for task 115: unlimited
  | Current stacksize for task 116: unlimited
  | Current stacksize for task 117: unlimited
  | Current stacksize for task 118: unlimited
  | Current stacksize for task 119: unlimited
 
  Consistency checks for the contents of control.in are next.
 
  MPI_IN_PLACE appears to work with this MPI implementation.
  | Keeping use_mpi_in_place .true. (see manual).
  Target number of points in a grid batch is not set. Defaulting to  100
  Method for grid partitioning is not set. Defaulting to parallel hash+maxmin partitioning.
  Batch size limit is not set. Defaulting to    200
  By default, will store active basis functions for each batch.
  If in need of memory, prune_basis_once .false. can be used to disable this option.
  communication_type for Hartree potential was not specified.
  Defaulting to calc_hartree .
  Defaulting to Pulay charge density mixer.
  Pulay mixer: Number of relevant iterations not set.
  Defaulting to    8 iterations.
  Pulay mixer: Number of initial linear mixing iterations not set.
  Defaulting to    0 iterations.
  Work space size for distributed Hartree potential not set.
  Defaulting to   0.200000E+03 MB.
  Mixing parameter for charge density mixing has not been set.
  Using default: charge_mix_param =     0.0500.
  The mixing parameter will be adjusted in iteration number     2 of the first full s.c.f. cycle only.
  Algorithm-dependent basis array size parameters:
  | n_max_pulay                         :        8
  Maximum number of self-consistency iterations not provided.
  Presetting  1000 iterations.
  Presetting      1001 iterations before the initial mixing cycle
  is restarted anyway using the sc_init_iter criterion / keyword.
  Presetting a factor      1.000 between actual scf density residual
  and density convergence criterion sc_accuracy_rho below which sc_init_iter
  takes no effect.
  Geometry relaxation not requested: no relaxation will be performed.
  Analytical stress will be computed.
  Analytical stress calculation: Only the upper triangle is calculated.
                                 Final output is symmetrized.
  Analytical stress calculation: scf convergence accuracy of stress not set.
                                 Analytical stress self-consistency will not be checked explicitly.
                                 Be sure to set other criteria like sc_accuracy_rho tight enough.
  Forces evaluation will include force correction term due to incomplete self-consistency (default).
  Handling of forces: Unphysical translation and rotation will be removed from forces.
  No accuracy limit for integral partition fn. given. Defaulting to  0.1000E-14.
  No threshold value for u(r) in integrations given. Defaulting to  0.1000E-05.
  No occupation type (smearing scheme) given. Defaulting to Gaussian broadening, width =  0.1000E-01 eV.
  The width will be adjusted in iteration number     2 of the first full s.c.f. cycle only.
  S.C.F. convergence parameters will be adjusted in iteration number     2 of the first full s.c.f. cycle only.
  No accuracy for occupation numbers given. Defaulting to  0.1000E-12.
  No threshold value for occupation numbers given. Defaulting to  0.0000E+00.
  No accuracy for fermi level given. Defaulting to  0.1000E-19.
  Maximum # of iterations to find E_F not set. Defaulting to  200.
  Preferred method for the eigenvalue solver ('KS_method') not specified in 'control.in'.
  Calling BLACS routine to test compilation state
  Since ScaLAPACK support is enabled, defaulting to ELPA (via ELSI).
  Will not use alltoall communication since running on < 1024 CPUs.
  Threshold for basis singularities not set.
  Default threshold for basis singularities:  0.1000E-04
  partition_type (choice of integration weights) for integrals was not specified.
  | Using a version of the partition function of Stratmann and coworkers ('stratmann_sparse').
  | At each grid point, the set of atoms used to build the partition table is smoothly restricted to
  | only those atoms whose free-atom density would be non-zero at that grid point.
  Partitioning for Hartree potential was not defined. Using partition_type for integrals.
  | Adjusted default value of keyword multip_moments_threshold to:       0.10000000E-11
  | This value may affect high angular momentum components of the Hartree potential in periodic systems.
  Angular momentum expansion for Kerker preconditioner not set explicitly.
  | Using default value of   0
  No explicit requirement for turning off preconditioner.
  | By default, it will be turned off when the charge convergence reaches
  | sc_accuracy_rho  =   0.100000E-05
  | sc_accuracy_eev  =   0.100000E-02
  | sc_accuracy_etot =   0.100000E-05
  No special mixing parameter while Kerker preconditioner is on.
  Using default: charge_mix_param =     0.0500.
  No q(lm)/r^(l+1) cutoff set for long-range Hartree potential.
  | Using default value of  0.100000E-09 .
  | Verify using the multipole_threshold keyword.
  Defaulting to new monopole extrapolation.
  Density update method: automatic selection selected.
  Using density matrix based charge density update.
  Using density matrix based charge density update.
  Using packed matrix style: index .
  Defaulting to use time-reversal symmetry for k-point grid.
  Charge integration errors on the 3D integration grid will be compensated
  by explicit normalization and distribution of residual charges.
  Use the "compensate_multipole_errors" flag to change this behaviour.
 
  Consistency checks for the contents of geometry.in are next.
 

  Range separation radius for Ewald summation (hartree_convergence_parameter):      3.89225860 bohr.
  Number of empty states per atom not set in control.in - providing a guess from actual geometry.
  | Total number of empty states used during s.c.f. cycle:      432
  If you use a very high smearing, use empty_states (per atom!) in control.in to increase this value.

  Structure-dependent array size parameters: 
  | Maximum number of distinct radial functions  :       15
  | Maximum number of basis functions            :     2544
  | Number of Kohn-Sham states (occupied + empty):     1152
------------------------------------------------------------

------------------------------------------------------------
          Preparing all fixed parts of the calculation.
------------------------------------------------------------
  Determining machine precision:
    2.225073858507201E-308
  Setting up grids for atomic and cluster calculations.

  Creating wave function, potential, and density for free atoms.

  Species: O

  List of occupied orbitals and eigenvalues:
    n    l              occ      energy [Ha]    energy [eV]
    1    0           2.0000       -18.926989      -515.0296
    2    0           2.0000        -0.880247       -23.9527
    2    1           4.0000        -0.331514        -9.0210


  Species: Si

  List of occupied orbitals and eigenvalues:
    n    l              occ      energy [Ha]    energy [eV]
    1    0           2.0000       -65.767597     -1789.6274
    2    0           2.0000        -5.115610      -139.2028
    3    0           2.0000        -0.388877       -10.5819
    2    1           6.0000        -3.500197       -95.2452
    3    1           2.0000        -0.140803        -3.8315


  Adding cutoff potential to free-atom effective potential.
  Creating fixed part of basis set: Ionic, confined, hydrogenic.
 
  O                    hydrogenic:
 
  List of hydrogenic basis orbitals: 
    n    l      effective z      eigenvalue [eV]  inner max. [A]     outer max. [A]     outer radius [A]   
    2    1         1.800000       -10.9749           1.164242           1.164242           4.578029
    3    2         7.600000       -87.3180           0.624125           0.624125           3.251020
    3    0         6.400000       -61.9207           0.061167           1.081902           4.001998
 
 
  Si                   ion:

  List of free ionic orbitals and eigenvalues:
    n    l      energy [Ha]    energy [eV]
    1    0       -66.641157     -1813.3982
    2    0        -5.964274      -162.2962
    3    0        -1.073878       -29.2217
    2    1        -4.350005      -118.3697
    3    1        -0.776571       -21.1316


  List of ionic basis orbitals and eigenvalues:
    n    l      energy [Ha]    energy [eV]    outer radius [A]
    3    0        -1.073857       -29.2211       4.214062

 
  Si                   hydrogenic:
 
  List of hydrogenic basis orbitals: 
    n    l      effective z      eigenvalue [eV]  inner max. [A]     outer max. [A]     outer radius [A]   
    3    2         4.200000       -26.6624           1.139231           1.139231           4.534782
    2    1         1.400000        -6.4613           1.472672           1.472672           4.590560
    4    3         6.200000       -32.6778           1.368518           1.368518           4.534782
 
  Creating atomic-like basis functions for current effective potential.

  Species O                   :

  List of atomic basis orbitals and eigenvalues:
    n    l      energy [Ha]    energy [eV]    outer radius [A]
    1    0       -18.926989      -515.0296       1.415765
    2    0        -0.880247       -23.9527       4.413171
    2    1        -0.331514        -9.0210       4.522403


  Species Si                  :

  List of atomic basis orbitals and eigenvalues:
    n    l      energy [Ha]    energy [eV]    outer radius [A]
    1    0       -65.767597     -1789.6274       0.789468
    2    0        -5.115610      -139.2028       2.815114
    3    0        -0.388877       -10.5819       4.534782
    2    1        -3.500197       -95.2452       3.259919
    3    1        -0.140803        -3.8315       4.590560

  Assembling full basis from fixed parts.
  | Species O :   atomic orbital   1 s accepted.
  | Species O :    hydro orbital   3 s accepted.
  | Species O :   atomic orbital   2 s accepted.
  | Species O :   atomic orbital   2 p accepted.
  | Species O :    hydro orbital   2 p accepted.
  | Species O :    hydro orbital   3 d accepted.
  | Species Si :   atomic orbital   1 s accepted.
  | Species Si :   atomic orbital   2 s accepted.
  | Species Si :    ionic orbital   3 s accepted.
  | Species Si :   atomic orbital   3 s accepted.
  | Species Si :   atomic orbital   2 p accepted.
  | Species Si :   atomic orbital   3 p accepted.
  | Species Si :    hydro orbital   2 p accepted.
  | Species Si :    hydro orbital   3 d accepted.
  | Species Si :    hydro orbital   4 f accepted.
 
  Basis size parameters after reduction:
  | Total number of radial functions:       15
  | Total number of basis functions :     2544
 
  Per-task memory consumption for arrays in subroutine allocate_ext:
  |           5.230264MB.
  Testing on-site integration grid accuracy.
  |  Species  Function  <phi|h_atom|phi> (log., in eV)  <phi|h_atom|phi> (rad., in eV)
           1        1               -515.0295626295               -515.0294562738
           1        2                 15.1698434419                 15.1699322204
           1        3                -21.6038822678                -21.6039118105
           1        4                 -9.0211123393                 -9.0212703513
           1        5                  8.3047696391                  8.2854840999
           1        6                 45.8428042125                 45.8427461222
           2        7              -1789.6273740966              -1789.6266345813
           2        8               -139.2028173376               -139.2028132357
           2        9                -10.2237226190                -10.2235219160
           2       10                  5.6355365073                  5.5558633521 ***
           2       11                -95.2452114632                -95.2452114537
           2       12                 -3.8413965043                 -3.8571292824
           2       13                  6.4035522332                  6.2277973139 ***
           2       14                  6.3860095444                  6.3839142324
           2       15                 19.3722793793                 19.3677446767
 * Note: Onsite integrals marked "***" above are less accurate than
 * onsite_accuracy_threshold =    0.03000 eV. Usually, this is harmless.
 * When in doubt, tighten the "radial" and/or "radial_multiplier" flags to check.

  Preparing densities etc. for the partition functions (integrals / Hartree potential).

  Preparations completed.
  max(cpu_time)          :      0.218 s.
  Wall clock time (cpu1) :      0.218 s.
------------------------------------------------------------

------------------------------------------------------------
          Begin self-consistency loop: Initialization.

[...]
  |   25         -0.699059756226139E-03         -0.138127551305414E-02          0.161258178531183E-02
  |   26         -0.776916916743042E-03         -0.144055320859592E-02          0.170154866344238E-02
  |   27          0.698996739344302E-03         -0.138124551433860E-02          0.161252210391226E-02
  |   28          0.776846431826952E-03         -0.144051160527743E-02          0.170147044373873E-02
  |   29         -0.699109390061412E-03          0.138129589593250E-02          0.161263036375600E-02
  |   30         -0.776959602062262E-03          0.144057091338853E-02          0.170158211522420E-02
  |   31          0.699039654543737E-03          0.138127238591130E-02          0.161256463297843E-02
  |   32          0.776875581558753E-03          0.144054149979105E-02          0.170151181144601E-02
  |   33          0.102010224004131E-02         -0.161316570027094E-02          0.604691038300652E-04
  |   34          0.879318117835972E-03         -0.140668150588721E-02          0.103032634299932E-04
  |   35         -0.102012620293397E-02         -0.161317367448024E-02          0.604720771289660E-04
  |   36         -0.879289225300667E-03         -0.140661843770336E-02          0.102906088780176E-04
  |   37          0.102002972935483E-02          0.161306742323797E-02          0.604435644766369E-04
  |   38          0.879256599589703E-03          0.140662013700462E-02          0.102892646194743E-04
  |   39         -0.102001668506536E-02          0.161304930263682E-02          0.604393720298126E-04
  |   40         -0.879212440496653E-03          0.140656493709775E-02          0.102721036824412E-04
  |   41         -0.102002781640523E-02          0.161305944103851E-02         -0.604426751452805E-04
  |   42         -0.879207048978615E-03          0.140655661170220E-02         -0.102695754557475E-04
  |   43          0.102000952708351E-02          0.161306363027450E-02         -0.604405760658556E-04
  |   44          0.879225950846647E-03          0.140658945054018E-02         -0.102833867798396E-04
  |   45         -0.102012950717452E-02         -0.161316440847643E-02         -0.604730450536912E-04
  |   46         -0.879279365045291E-03         -0.140662621178119E-02         -0.102925092841118E-04
  |   47          0.102012650069404E-02         -0.161316790285093E-02         -0.604725521212439E-04
  |   48          0.879319090934744E-03         -0.140667730808622E-02         -0.103037902322690E-04
  |   49          0.801240920925452E-04          0.205172218909823E-03          0.129558494368683E-09
  |   50          0.912793664608076E-04          0.228580223495158E-03          0.158852797432470E-07
  |   51         -0.801325553400919E-04          0.205174050750622E-03          0.178491921656055E-07
  |   52         -0.912951810519747E-04          0.228579498152728E-03          0.153845702901572E-07
  |   53          0.800930660704601E-04         -0.205174526481925E-03         -0.118299629049999E-07
  |   54          0.912559638381347E-04         -0.228579835016015E-03         -0.774914724687105E-08
  |   55         -0.801098602019820E-04         -0.205163781092278E-03         -0.154582766743897E-07
  |   56         -0.912670597248817E-04         -0.228579111177795E-03         -0.141128678072819E-08
  |   57         -0.184019904105762E-03         -0.246108110048183E-03         -0.621811680409545E-04
  |   58          0.184035018901547E-03          0.246112051216327E-03          0.621884208469701E-04
  |   59          0.183857572421132E-03         -0.245903928876323E-03         -0.621242848802745E-04
  |   60         -0.184232915439138E-03          0.246356077891237E-03          0.622465580841383E-04
  |   61         -0.184235335793317E-03          0.246349432537026E-03         -0.622480055690923E-04
  |   62          0.183861035025401E-03         -0.245905795876242E-03          0.621310381599512E-04
  |   63          0.184039509503728E-03          0.246118752299055E-03         -0.621931822840147E-04
  |   64         -0.184037663300544E-03         -0.246115839898494E-03          0.621888041496550E-04
  |   65          0.118535973779274E-02          0.311852044271288E-03         -0.110222953513321E-02
  |   66          0.117507063786392E-02          0.353543025376993E-03         -0.107063626255779E-02
  |   67         -0.118535486996447E-02          0.311855406163473E-03         -0.110222457908493E-02
  |   68         -0.117505511792997E-02          0.353557882300411E-03         -0.107060436168957E-02
  |   69          0.118528543055987E-02         -0.311859970817722E-03         -0.110217580015748E-02
  |   70          0.117498804372952E-02         -0.353557943427874E-03         -0.107055925130566E-02
  |   71         -0.118525989404459E-02         -0.311870555306078E-03         -0.110213708533734E-02
  |   72         -0.117496173415413E-02         -0.353566723908717E-03         -0.107052711867658E-02
  |   73         -0.118527614968546E-02         -0.311870376029094E-03          0.110216024642502E-02
  |   74         -0.117497039371524E-02         -0.353573115012484E-03          0.107054091710230E-02
  |   75          0.118529468248452E-02         -0.311851276872961E-03          0.110219224925919E-02
  |   76          0.117498447674584E-02         -0.353560301066292E-03          0.107056240686095E-02
  |   77         -0.118532166323696E-02          0.311859130771221E-03          0.110219772692666E-02
  |   78         -0.117504281466088E-02          0.353556493720575E-03          0.107058754403083E-02
  |   79          0.118534435139143E-02          0.311853180625735E-03          0.110222066973269E-02
  |   80          0.117506614866539E-02          0.353544447103870E-03          0.107061500584120E-02
  |   81         -0.141782591916162E-07         -0.218839847119213E-02         -0.126563416824964E-07
  |   82         -0.335059027506851E-07         -0.215390965522881E-02         -0.728899361545228E-08
  |   83         -0.780977468626900E-07          0.218840547223211E-02          0.809218626800618E-08
  |   84         -0.185382208553307E-07          0.215391451777165E-02          0.135891599958245E-07
  |   85          0.854207024531182E-03          0.192425349494787E-03         -0.329518003987421E-08
  |   86          0.859757998070481E-03          0.820260086876725E-03         -0.565916970026279E-08
  |   87         -0.854201807996338E-03          0.192550335817030E-03         -0.506843265347748E-08
  |   88         -0.859748063126721E-03          0.820385868445501E-03         -0.640863150152986E-08
  |   89          0.854199592863238E-03         -0.192223915637276E-03          0.306689634488791E-08
  |   90          0.859747011697529E-03         -0.820110389699127E-03          0.660624417055011E-08
  |   91         -0.854196042496449E-03         -0.192353557857116E-03          0.525978581066108E-08
  |   92         -0.859744528952145E-03         -0.820206646929475E-03          0.557523271234193E-08
  |   93          0.128293162030963E-06         -0.262230404536417E-02         -0.324329232491141E-08
  |   94          0.111902932228499E-06         -0.257827752722474E-02          0.258829353602269E-08
  |   95          0.717023831403877E-07          0.262231349473727E-02         -0.110923843222637E-08
  |   96          0.600413401555689E-07          0.257828776555205E-02         -0.816759980443687E-10
  |   97          0.174870965555737E-02         -0.547585853587933E-03         -0.107801722395204E-02
  |   98          0.176926191348981E-02         -0.667953720833185E-03         -0.103304693864764E-02
  |   99         -0.174860330212954E-02         -0.547587554455030E-03         -0.107799870418136E-02
  |  100         -0.176922006343727E-02         -0.667933000958949E-03         -0.103304116587521E-02
  |  101          0.174874246564254E-02          0.547692301947950E-03         -0.107803325054448E-02
  |  102          0.176933785562496E-02          0.667982981923051E-03         -0.103307199502442E-02
  |  103         -0.174870198063535E-02          0.547699515958171E-03         -0.107801571729956E-02
  |  104         -0.176932266910802E-02          0.668020559415111E-03         -0.103304096249869E-02
  |  105         -0.174873388845653E-02          0.547656304220528E-03          0.107799783222818E-02
  |  106         -0.176930272629545E-02          0.668005214520822E-03          0.103303172702168E-02
  |  107          0.174878952116834E-02          0.547648492930579E-03          0.107801141816815E-02
  |  108          0.176936973246205E-02          0.667958589797398E-03          0.103305768848360E-02
  |  109         -0.174859155181830E-02         -0.547620139296988E-03          0.107802318555644E-02
  |  110         -0.176923071108299E-02         -0.667972379208296E-03          0.103303657018672E-02
  |  111          0.174867369752932E-02         -0.547615823450182E-03          0.107804612892131E-02
  |  112          0.176929118549188E-02         -0.667969675876944E-03          0.103306051585969E-02
  |  113         -0.753619442173908E-04          0.138043838725717E-02         -0.106100858464524E-02
  |  114         -0.203998316610188E-03          0.979183913088897E-03         -0.110300818307547E-02
  |  115          0.754369088360484E-04          0.138030040996183E-02         -0.106102442317800E-02
  |  116          0.204104764730325E-03          0.979031757899105E-03         -0.110305260164522E-02
  |  117         -0.751631471900378E-04         -0.138049296435953E-02         -0.106098490337312E-02
  |  118         -0.203819570998840E-03         -0.979193355233840E-03         -0.110298848790147E-02
  |  119          0.752315106856110E-04         -0.138035623915286E-02         -0.106102329440100E-02
  |  120          0.203891602008278E-03         -0.979098584050831E-03         -0.110303801990439E-02
  |  121          0.752476462351612E-04         -0.138038086685953E-02          0.106101968011207E-02
  |  122          0.203869387957610E-03         -0.979100550934261E-03          0.110302353968051E-02
  |  123         -0.751831382328590E-04         -0.138052250956301E-02          0.106098070037972E-02
  |  124         -0.203788407009465E-03         -0.979211338237695E-03          0.110298160388975E-02
  |  125          0.754253219660531E-04          0.138027987097049E-02          0.106104674365953E-02
  |  126          0.204105835628828E-03          0.979006488254782E-03          0.110304865437560E-02
  |  127         -0.753497222868120E-04          0.138040665011402E-02          0.106102119985317E-02
  |  128         -0.204001059015197E-03          0.979156756677101E-03          0.110300805307645E-02
  |  129          0.369980788689480E-03         -0.215172281853398E-02          0.766845713152345E-09
  |  130          0.365367709888855E-03         -0.256002821205263E-02          0.155035404541490E-07
  |  131         -0.369919711602745E-03         -0.215181013130299E-02          0.457494832262320E-08
  |  132         -0.365303382247208E-03         -0.256012759301997E-02          0.113698699789576E-07
  |  133          0.370031890671411E-03          0.215156476408443E-02         -0.250546870272400E-08
  |  134          0.365379169587175E-03          0.255992007633013E-02         -0.215617835003330E-07
  |  135         -0.369917193732198E-03          0.215165273824650E-02         -0.953677819468215E-08
  |  136         -0.365352031555117E-03          0.255998414225982E-02         -0.155908702577833E-07
  |  137          0.957017920739024E-03          0.280551307454097E-02          0.188512837677974E-07
  |  138          0.902863662056172E-03          0.241188518892308E-02          0.465817264766658E-08
  |  139         -0.957168460577795E-03          0.280544692127442E-02          0.102018434269701E-07
  |  140         -0.903017058920977E-03          0.241183094477450E-02          0.281075288702496E-08
  |  141          0.957112181353230E-03         -0.280559571504576E-02         -0.599516339951464E-08
  |  142          0.902969207317961E-03         -0.241193699286324E-02         -0.227337875723689E-07
  |  143         -0.957220032111487E-03         -0.280553065637225E-02         -0.335376777295859E-08
  |  144         -0.903033424425599E-03         -0.241189232068788E-02         -0.995984117350001E-08

  ------------------------------------ 
  Start decomposition of the XC Energy 
  ------------------------------------ 
  X and C from original XC functional choice 
  Hartree-Fock Energy :          0.000000000 Ha              0.000000000 eV
  X Energy            :      -1777.096689524 Ha         -48357.261312316 eV
  C Energy            :        -52.722433742 Ha          -1434.650416318 eV
  Total XC Energy     :      -1829.819123266 Ha         -49791.911728634 eV
  ------------------------------------ 
  LDA X and C from self-consistent density 
  X Energy LDA        :      -1632.755710906 Ha         -44429.543444036 eV
  C Energy LDA        :       -106.181946935 Ha          -2889.357784993 eV
  ------------------------------------ 
  End decomposition of the XC Energy 
  ------------------------------------ 

------------------------------------------------------------

------------------------------------------------------------------------------
  Final output of selected total energy values:

  The following output summarizes some interesting total energy values
  at the end of a run (AFTER all relaxation, molecular dynamics, etc.).

  | Total energy of the DFT / Hartree-Fock s.c.f. calculation      :        -576129.487180633 eV
  | Final zero-broadening corrected energy (caution - metals only) :        -576129.487180633 eV
  | For reference only, the value of 1 Hartree used in FHI-aims is :             27.211384500 eV
  | For reference only, the overall average (free atom contribution
  | + realspace contribution) of the electrostatic potential after
  | s.c.f. convergence is                                          :             -7.121273036 eV

  Before relying on these values, please be sure to understand exactly which
  total energy value is referred to by a given number. Different objects may
  all carry the same name 'total energy'. Definitions:

  Total energy of the DFT / Hartree-Fock s.c.f. calculation:
  | Note that this energy does not include ANY quantities calculated after the
  | s.c.f. cycle, in particular not ANY RPA, MP2, etc. many-body perturbation terms.

  Final zero-broadening corrected energy:
  | For metallic systems only, a broadening of the occupation numbers at the Fermi
  | level can be extrapolated back to zero broadening by an electron-gas inspired
  | formula. For all systems that are not real metals, this value can be
  | meaningless and should be avoided.

------------------------------------------------------------------------------
  Methods described in the following list of references were used in this FHI-aims run.
  If you publish the results, please make sure to cite these reference if they apply.
  FHI-aims is an academic code, and for our developers (often, Ph.D. students
  and postdocs), scientific credit in the community is essential.
  Thank you for helping us!

  For any use of FHI-aims, please cite:

    Volker Blum, Ralf Gehrke, Felix Hanke, Paula Havu, Ville Havu,
    Xinguo Ren, Karsten Reuter, and Matthias Scheffler
    'Ab initio molecular simulations with numeric atom-centered orbitals'
    Computer Physics Communications 180, 2175-2196 (2009)
    http://dx.doi.org/10.1016/j.cpc.2009.06.022


  For the analytical stress tensor used in your run, please cite:

    Franz Knuth, Christian Carbogno, Viktor Atalla, Volker Blum, Matthias Scheffler
    'All-electron formalism for total energy strain derivatives and
    stress tensor components for numeric atom-centered orbitals'
    Computer Physics Communications 190, 33-50 (2015).
    http://dx.doi.org/10.1016/j.cpc.2015.01.003


  The provided symmetry information was generated with SPGlib:

    Atsushi Togo, Yusuke Seto, Dimitar Pashov
    SPGlib 1.7.3 obtained from http://spglib.sourceforge.net
    Copyright (C) 2008 Atsushi Togo


  The ELSI infrastructure was used in your run to solve the Kohn-Sham electronic structure.
  Please check out http://elsi-interchange.org to learn more.
  If scalability is important for your project, please acknowledge ELSI by citing:

    V. W-z. Yu, F. Corsetti, A. Garcia, W. P. Huhn, M. Jacquelin, W. Jia,
    B. Lange, L. Lin, J. Lu, W. Mi, A. Seifitokaldani, A. Vazquez-Mayagoitia,
    C. Yang, H. Yang, and V. Blum
    'ELSI: A unified software interface for Kohn-Sham electronic structure solvers'
    Computer Physics Communications 222, 267-285 (2018).
    http://dx.doi.org/10.1016/j.cpc.2017.09.007


  For the real-space grid partitioning and parallelization used in this calculation, please cite:

    Ville Havu, Volker Blum, Paula Havu, and Matthias Scheffler,
    'Efficient O(N) integration for all-electron electronic structure calculation'
    'using numerically tabulated basis functions'
    Journal of Computational Physics 228, 8367-8379 (2009).
    http://dx.doi.org/10.1016/j.jcp.2009.08.008

  Of course, there are many other important community references, e.g., those cited in the
  above references. Our list is limited to references that describe implementations in the
  FHI-aims code. The reason is purely practical (length of this list) - please credit others as well.

------------------------------------------------------------
          Leaving FHI-aims.
          Date     :  20221025, Time     :  182210.644

          Computational steps:
          | Number of self-consistency cycles          :           20
          | Number of SCF (re)initializations          :            1

          Detailed time accounting                     :  max(cpu_time)    wall_clock(cpu1)
          | Total time                                 :       92.571 s          92.951 s
          | Preparation time                           :        0.218 s           0.218 s
          | Boundary condition initalization           :        0.684 s           0.686 s
          | Grid partitioning                          :        0.347 s           0.347 s
          | Preloading free-atom quantities on grid    :        0.379 s           0.382 s
          | Free-atom superposition energy             :        0.092 s           0.091 s
          | Total time for integrations                :        8.437 s           8.455 s
          | Total time for solution of K.-S. equations :       13.228 s          13.244 s
          | Total time for density & force components  :       27.390 s          27.459 s
          | Total time for mixing & preconditioning    :       12.761 s          12.659 s
          | Total time for Hartree multipole update    :        0.135 s           0.136 s
          | Total time for Hartree multipole sum       :       25.495 s          25.554 s
          | Total time for total energy evaluation     :        0.013 s           0.007 s
          | Total time NSC force correction            :        2.735 s           2.742 s
          | Total time for scaled ZORA corrections     :        0.000 s           0.000 s

          Partial memory accounting:
          | Residual value for overall tracked memory usage across tasks:     0.000000 MB (should be 0.000000 MB)
          | Peak values for overall tracked memory usage:
          |   Minimum:       82.072 MB (on task  12 after allocating temp_ham_ovlp)
          |   Maximum:       82.383 MB (on task   0 after allocating temp_ham_ovlp)
          |   Average:       82.321 MB
          | Largest tracked array allocation:
          |   Minimum:       21.641 MB (overlap_matrix on task   0)
          |   Maximum:       21.641 MB (overlap_matrix on task   0)
          |   Average:       21.641 MB
          Note:  These values currently only include a subset of arrays which are explicitly tracked.
          The "true" memory usage will be greater.

          Have a nice day.
------------------------------------------------------------
